+ 0.5 0 2 cbr 500 ------- 1 0.0 3.0 0 0
- 0.5 0 2 cbr 500 ------- 1 0.0 3.0 0 0
+ 0.505 0 2 cbr 500 ------- 1 0.0 3.0 1 1
- 0.505 0 2 cbr 500 ------- 1 0.0 3.0 1 1
+ 0.51 0 2 cbr 500 ------- 1 0.0 3.0 2 2
- 0.51 0 2 cbr 500 ------- 1 0.0 3.0 2 2
r 0.512 0 2 cbr 500 ------- 1 0.0 3.0 0 0
+ 0.512 2 3 cbr 500 ------- 1 0.0 3.0 0 0
- 0.512 2 3 cbr 500 ------- 1 0.0 3.0 0 0
+ 0.515 0 2 cbr 500 ------- 1 0.0 3.0 3 3
- 0.515 0 2 cbr 500 ------- 1 0.0 3.0 3 3
r 0.517 0 2 cbr 500 ------- 1 0.0 3.0 1 1
+ 0.517 2 3 cbr 500 ------- 1 0.0 3.0 1 1
- 0.517 2 3 cbr 500 ------- 1 0.0 3.0 1 1
+ 0.52 0 2 cbr 500 ------- 1 0.0 3.0 4 4
- 0.52 0 2 cbr 500 ------- 1 0.0 3.0 4 4
r 0.522 0 2 cbr 500 ------- 1 0.0 3.0 2 2
+ 0.522 2 3 cbr 500 ------- 1 0.0 3.0 2 2
- 0.522 2 3 cbr 500 ------- 1 0.0 3.0 2 2
r 0.524 2 3 cbr 500 ------- 1 0.0 3.0 0 0
+ 0.525 0 2 cbr 500 ------- 1 0.0 3.0 5 5
- 0.525 0 2 cbr 500 ------- 1 0.0 3.0 5 5
r 0.527 0 2 cbr 500 ------- 1 0.0 3.0 3 3
+ 0.527 2 3 cbr 500 ------- 1 0.0 3.0 3 3
- 0.527 2 3 cbr 500 ------- 1 0.0 3.0 3 3
r 0.529 2 3 cbr 500 ------- 1 0.0 3.0 1 1
+ 0.53 0 2 cbr 500 ------- 1 0.0 3.0 6 6
- 0.53 0 2 cbr 500 ------- 1 0.0 3.0 6 6
r 0.532 0 2 cbr 500 ------- 1 0.0 3.0 4 4
+ 0.532 2 3 cbr 500 ------- 1 0.0 3.0 4 4
- 0.532 2 3 cbr 500 ------- 1 0.0 3.0 4 4
r 0.534 2 3 cbr 500 ------- 1 0.0 3.0 2 2
+ 0.535 0 2 cbr 500 ------- 1 0.0 3.0 7 7
- 0.535 0 2 cbr 500 ------- 1 0.0 3.0 7 7
r 0.537 0 2 cbr 500 ------- 1 0.0 3.0 5 5
+ 0.537 2 3 cbr 500 ------- 1 0.0 3.0 5 5
- 0.537 2 3 cbr 500 ------- 1 0.0 3.0 5 5
r 0.539 2 3 cbr 500 ------- 1 0.0 3.0 3 3
+ 0.54 0 2 cbr 500 ------- 1 0.0 3.0 8 8
- 0.54 0 2 cbr 500 ------- 1 0.0 3.0 8 8
r 0.542 0 2 cbr 500 ------- 1 0.0 3.0 6 6
+ 0.542 2 3 cbr 500 ------- 1 0.0 3.0 6 6
- 0.542 2 3 cbr 500 ------- 1 0.0 3.0 6 6
r 0.544 2 3 cbr 500 ------- 1 0.0 3.0 4 4
+ 0.545 0 2 cbr 500 ------- 1 0.0 3.0 9 9
- 0.545 0 2 cbr 500 ------- 1 0.0 3.0 9 9
r 0.547 0 2 cbr 500 ------- 1 0.0 3.0 7 7
+ 0.547 2 3 cbr 500 ------- 1 0.0 3.0 7 7
- 0.547 2 3 cbr 500 ------- 1 0.0 3.0 7 7
r 0.549 2 3 cbr 500 ------- 1 0.0 3.0 5 5
+ 0.55 0 2 cbr 500 ------- 1 0.0 3.0 10 10
- 0.55 0 2 cbr 500 ------- 1 0.0 3.0 10 10
r 0.552 0 2 cbr 500 ------- 1 0.0 3.0 8 8
+ 0.552 2 3 cbr 500 ------- 1 0.0 3.0 8 8
- 0.552 2 3 cbr 500 ------- 1 0.0 3.0 8 8
r 0.554 2 3 cbr 500 ------- 1 0.0 3.0 6 6
+ 0.555 0 2 cbr 500 ------- 1 0.0 3.0 11 11
- 0.555 0 2 cbr 500 ------- 1 0.0 3.0 11 11
r 0.557 0 2 cbr 500 ------- 1 0.0 3.0 9 9
+ 0.557 2 3 cbr 500 ------- 1 0.0 3.0 9 9
- 0.557 2 3 cbr 500 ------- 1 0.0 3.0 9 9
r 0.559 2 3 cbr 500 ------- 1 0.0 3.0 7 7
+ 0.56 0 2 cbr 500 ------- 1 0.0 3.0 12 12
- 0.56 0 2 cbr 500 ------- 1 0.0 3.0 12 12
r 0.562 0 2 cbr 500 ------- 1 0.0 3.0 10 10
+ 0.562 2 3 cbr 500 ------- 1 0.0 3.0 10 10
- 0.562 2 3 cbr 500 ------- 1 0.0 3.0 10 10
r 0.564 2 3 cbr 500 ------- 1 0.0 3.0 8 8
+ 0.565 0 2 cbr 500 ------- 1 0.0 3.0 13 13
- 0.565 0 2 cbr 500 ------- 1 0.0 3.0 13 13
r 0.567 0 2 cbr 500 ------- 1 0.0 3.0 11 11
+ 0.567 2 3 cbr 500 ------- 1 0.0 3.0 11 11
- 0.567 2 3 cbr 500 ------- 1 0.0 3.0 11 11
r 0.569 2 3 cbr 500 ------- 1 0.0 3.0 9 9
+ 0.57 0 2 cbr 500 ------- 1 0.0 3.0 14 14
- 0.57 0 2 cbr 500 ------- 1 0.0 3.0 14 14
r 0.572 0 2 cbr 500 ------- 1 0.0 3.0 12 12
+ 0.572 2 3 cbr 500 ------- 1 0.0 3.0 12 12
- 0.572 2 3 cbr 500 ------- 1 0.0 3.0 12 12
r 0.574 2 3 cbr 500 ------- 1 0.0 3.0 10 10
+ 0.575 0 2 cbr 500 ------- 1 0.0 3.0 15 15
- 0.575 0 2 cbr 500 ------- 1 0.0 3.0 15 15
r 0.577 0 2 cbr 500 ------- 1 0.0 3.0 13 13
+ 0.577 2 3 cbr 500 ------- 1 0.0 3.0 13 13
- 0.577 2 3 cbr 500 ------- 1 0.0 3.0 13 13
r 0.579 2 3 cbr 500 ------- 1 0.0 3.0 11 11
+ 0.58 0 2 cbr 500 ------- 1 0.0 3.0 16 16
- 0.58 0 2 cbr 500 ------- 1 0.0 3.0 16 16
r 0.582 0 2 cbr 500 ------- 1 0.0 3.0 14 14
+ 0.582 2 3 cbr 500 ------- 1 0.0 3.0 14 14
- 0.582 2 3 cbr 500 ------- 1 0.0 3.0 14 14
r 0.584 2 3 cbr 500 ------- 1 0.0 3.0 12 12
+ 0.585 0 2 cbr 500 ------- 1 0.0 3.0 17 17
- 0.585 0 2 cbr 500 ------- 1 0.0 3.0 17 17
r 0.587 0 2 cbr 500 ------- 1 0.0 3.0 15 15
+ 0.587 2 3 cbr 500 ------- 1 0.0 3.0 15 15
- 0.587 2 3 cbr 500 ------- 1 0.0 3.0 15 15
r 0.589 2 3 cbr 500 ------- 1 0.0 3.0 13 13
+ 0.59 0 2 cbr 500 ------- 1 0.0 3.0 18 18
- 0.59 0 2 cbr 500 ------- 1 0.0 3.0 18 18
r 0.592 0 2 cbr 500 ------- 1 0.0 3.0 16 16
+ 0.592 2 3 cbr 500 ------- 1 0.0 3.0 16 16
- 0.592 2 3 cbr 500 ------- 1 0.0 3.0 16 16
r 0.594 2 3 cbr 500 ------- 1 0.0 3.0 14 14
+ 0.595 0 2 cbr 500 ------- 1 0.0 3.0 19 19
- 0.595 0 2 cbr 500 ------- 1 0.0 3.0 19 19
r 0.597 0 2 cbr 500 ------- 1 0.0 3.0 17 17
+ 0.597 2 3 cbr 500 ------- 1 0.0 3.0 17 17
- 0.597 2 3 cbr 500 ------- 1 0.0 3.0 17 17
r 0.599 2 3 cbr 500 ------- 1 0.0 3.0 15 15
+ 0.6 0 2 cbr 500 ------- 1 0.0 3.0 20 20
- 0.6 0 2 cbr 500 ------- 1 0.0 3.0 20 20
r 0.602 0 2 cbr 500 ------- 1 0.0 3.0 18 18
+ 0.602 2 3 cbr 500 ------- 1 0.0 3.0 18 18
- 0.602 2 3 cbr 500 ------- 1 0.0 3.0 18 18
r 0.604 2 3 cbr 500 ------- 1 0.0 3.0 16 16
+ 0.605 0 2 cbr 500 ------- 1 0.0 3.0 21 21
- 0.605 0 2 cbr 500 ------- 1 0.0 3.0 21 21
r 0.607 0 2 cbr 500 ------- 1 0.0 3.0 19 19
+ 0.607 2 3 cbr 500 ------- 1 0.0 3.0 19 19
- 0.607 2 3 cbr 500 ------- 1 0.0 3.0 19 19
r 0.609 2 3 cbr 500 ------- 1 0.0 3.0 17 17
+ 0.61 0 2 cbr 500 ------- 1 0.0 3.0 22 22
- 0.61 0 2 cbr 500 ------- 1 0.0 3.0 22 22
r 0.612 0 2 cbr 500 ------- 1 0.0 3.0 20 20
+ 0.612 2 3 cbr 500 ------- 1 0.0 3.0 20 20
- 0.612 2 3 cbr 500 ------- 1 0.0 3.0 20 20
r 0.614 2 3 cbr 500 ------- 1 0.0 3.0 18 18
+ 0.615 0 2 cbr 500 ------- 1 0.0 3.0 23 23
- 0.615 0 2 cbr 500 ------- 1 0.0 3.0 23 23
r 0.617 0 2 cbr 500 ------- 1 0.0 3.0 21 21
+ 0.617 2 3 cbr 500 ------- 1 0.0 3.0 21 21
- 0.617 2 3 cbr 500 ------- 1 0.0 3.0 21 21
r 0.619 2 3 cbr 500 ------- 1 0.0 3.0 19 19
+ 0.62 0 2 cbr 500 ------- 1 0.0 3.0 24 24
- 0.62 0 2 cbr 500 ------- 1 0.0 3.0 24 24
r 0.622 0 2 cbr 500 ------- 1 0.0 3.0 22 22
+ 0.622 2 3 cbr 500 ------- 1 0.0 3.0 22 22
- 0.622 2 3 cbr 500 ------- 1 0.0 3.0 22 22
r 0.624 2 3 cbr 500 ------- 1 0.0 3.0 20 20
+ 0.625 0 2 cbr 500 ------- 1 0.0 3.0 25 25
- 0.625 0 2 cbr 500 ------- 1 0.0 3.0 25 25
r 0.627 0 2 cbr 500 ------- 1 0.0 3.0 23 23
+ 0.627 2 3 cbr 500 ------- 1 0.0 3.0 23 23
- 0.627 2 3 cbr 500 ------- 1 0.0 3.0 23 23
r 0.629 2 3 cbr 500 ------- 1 0.0 3.0 21 21
+ 0.63 0 2 cbr 500 ------- 1 0.0 3.0 26 26
- 0.63 0 2 cbr 500 ------- 1 0.0 3.0 26 26
r 0.632 0 2 cbr 500 ------- 1 0.0 3.0 24 24
+ 0.632 2 3 cbr 500 ------- 1 0.0 3.0 24 24
- 0.632 2 3 cbr 500 ------- 1 0.0 3.0 24 24
r 0.634 2 3 cbr 500 ------- 1 0.0 3.0 22 22
+ 0.635 0 2 cbr 500 ------- 1 0.0 3.0 27 27
- 0.635 0 2 cbr 500 ------- 1 0.0 3.0 27 27
r 0.637 0 2 cbr 500 ------- 1 0.0 3.0 25 25
+ 0.637 2 3 cbr 500 ------- 1 0.0 3.0 25 25
- 0.637 2 3 cbr 500 ------- 1 0.0 3.0 25 25
r 0.639 2 3 cbr 500 ------- 1 0.0 3.0 23 23
+ 0.64 0 2 cbr 500 ------- 1 0.0 3.0 28 28
- 0.64 0 2 cbr 500 ------- 1 0.0 3.0 28 28
r 0.642 0 2 cbr 500 ------- 1 0.0 3.0 26 26
+ 0.642 2 3 cbr 500 ------- 1 0.0 3.0 26 26
- 0.642 2 3 cbr 500 ------- 1 0.0 3.0 26 26
r 0.644 2 3 cbr 500 ------- 1 0.0 3.0 24 24
+ 0.645 0 2 cbr 500 ------- 1 0.0 3.0 29 29
- 0.645 0 2 cbr 500 ------- 1 0.0 3.0 29 29
r 0.647 0 2 cbr 500 ------- 1 0.0 3.0 27 27
+ 0.647 2 3 cbr 500 ------- 1 0.0 3.0 27 27
- 0.647 2 3 cbr 500 ------- 1 0.0 3.0 27 27
r 0.649 2 3 cbr 500 ------- 1 0.0 3.0 25 25
+ 0.65 0 2 cbr 500 ------- 1 0.0 3.0 30 30
- 0.65 0 2 cbr 500 ------- 1 0.0 3.0 30 30
r 0.652 0 2 cbr 500 ------- 1 0.0 3.0 28 28
+ 0.652 2 3 cbr 500 ------- 1 0.0 3.0 28 28
- 0.652 2 3 cbr 500 ------- 1 0.0 3.0 28 28
r 0.654 2 3 cbr 500 ------- 1 0.0 3.0 26 26
+ 0.655 0 2 cbr 500 ------- 1 0.0 3.0 31 31
- 0.655 0 2 cbr 500 ------- 1 0.0 3.0 31 31
r 0.657 0 2 cbr 500 ------- 1 0.0 3.0 29 29
+ 0.657 2 3 cbr 500 ------- 1 0.0 3.0 29 29
- 0.657 2 3 cbr 500 ------- 1 0.0 3.0 29 29
r 0.659 2 3 cbr 500 ------- 1 0.0 3.0 27 27
+ 0.66 0 2 cbr 500 ------- 1 0.0 3.0 32 32
- 0.66 0 2 cbr 500 ------- 1 0.0 3.0 32 32
r 0.662 0 2 cbr 500 ------- 1 0.0 3.0 30 30
+ 0.662 2 3 cbr 500 ------- 1 0.0 3.0 30 30
- 0.662 2 3 cbr 500 ------- 1 0.0 3.0 30 30
r 0.664 2 3 cbr 500 ------- 1 0.0 3.0 28 28
+ 0.665 0 2 cbr 500 ------- 1 0.0 3.0 33 33
- 0.665 0 2 cbr 500 ------- 1 0.0 3.0 33 33
r 0.667 0 2 cbr 500 ------- 1 0.0 3.0 31 31
+ 0.667 2 3 cbr 500 ------- 1 0.0 3.0 31 31
- 0.667 2 3 cbr 500 ------- 1 0.0 3.0 31 31
r 0.669 2 3 cbr 500 ------- 1 0.0 3.0 29 29
+ 0.67 0 2 cbr 500 ------- 1 0.0 3.0 34 34
- 0.67 0 2 cbr 500 ------- 1 0.0 3.0 34 34
r 0.672 0 2 cbr 500 ------- 1 0.0 3.0 32 32
+ 0.672 2 3 cbr 500 ------- 1 0.0 3.0 32 32
- 0.672 2 3 cbr 500 ------- 1 0.0 3.0 32 32
r 0.674 2 3 cbr 500 ------- 1 0.0 3.0 30 30
+ 0.675 0 2 cbr 500 ------- 1 0.0 3.0 35 35
- 0.675 0 2 cbr 500 ------- 1 0.0 3.0 35 35
r 0.677 0 2 cbr 500 ------- 1 0.0 3.0 33 33
+ 0.677 2 3 cbr 500 ------- 1 0.0 3.0 33 33
- 0.677 2 3 cbr 500 ------- 1 0.0 3.0 33 33
r 0.679 2 3 cbr 500 ------- 1 0.0 3.0 31 31
+ 0.68 0 2 cbr 500 ------- 1 0.0 3.0 36 36
- 0.68 0 2 cbr 500 ------- 1 0.0 3.0 36 36
r 0.682 0 2 cbr 500 ------- 1 0.0 3.0 34 34
+ 0.682 2 3 cbr 500 ------- 1 0.0 3.0 34 34
- 0.682 2 3 cbr 500 ------- 1 0.0 3.0 34 34
r 0.684 2 3 cbr 500 ------- 1 0.0 3.0 32 32
+ 0.685 0 2 cbr 500 ------- 1 0.0 3.0 37 37
- 0.685 0 2 cbr 500 ------- 1 0.0 3.0 37 37
r 0.687 0 2 cbr 500 ------- 1 0.0 3.0 35 35
+ 0.687 2 3 cbr 500 ------- 1 0.0 3.0 35 35
- 0.687 2 3 cbr 500 ------- 1 0.0 3.0 35 35
r 0.689 2 3 cbr 500 ------- 1 0.0 3.0 33 33
+ 0.69 0 2 cbr 500 ------- 1 0.0 3.0 38 38
- 0.69 0 2 cbr 500 ------- 1 0.0 3.0 38 38
r 0.692 0 2 cbr 500 ------- 1 0.0 3.0 36 36
+ 0.692 2 3 cbr 500 ------- 1 0.0 3.0 36 36
- 0.692 2 3 cbr 500 ------- 1 0.0 3.0 36 36
r 0.694 2 3 cbr 500 ------- 1 0.0 3.0 34 34
+ 0.695 0 2 cbr 500 ------- 1 0.0 3.0 39 39
- 0.695 0 2 cbr 500 ------- 1 0.0 3.0 39 39
r 0.697 0 2 cbr 500 ------- 1 0.0 3.0 37 37
+ 0.697 2 3 cbr 500 ------- 1 0.0 3.0 37 37
- 0.697 2 3 cbr 500 ------- 1 0.0 3.0 37 37
r 0.699 2 3 cbr 500 ------- 1 0.0 3.0 35 35
+ 0.7 0 2 cbr 500 ------- 1 0.0 3.0 40 40
- 0.7 0 2 cbr 500 ------- 1 0.0 3.0 40 40
r 0.702 0 2 cbr 500 ------- 1 0.0 3.0 38 38
+ 0.702 2 3 cbr 500 ------- 1 0.0 3.0 38 38
- 0.702 2 3 cbr 500 ------- 1 0.0 3.0 38 38
r 0.704 2 3 cbr 500 ------- 1 0.0 3.0 36 36
+ 0.705 0 2 cbr 500 ------- 1 0.0 3.0 41 41
- 0.705 0 2 cbr 500 ------- 1 0.0 3.0 41 41
r 0.707 0 2 cbr 500 ------- 1 0.0 3.0 39 39
+ 0.707 2 3 cbr 500 ------- 1 0.0 3.0 39 39
- 0.707 2 3 cbr 500 ------- 1 0.0 3.0 39 39
r 0.709 2 3 cbr 500 ------- 1 0.0 3.0 37 37
+ 0.71 0 2 cbr 500 ------- 1 0.0 3.0 42 42
- 0.71 0 2 cbr 500 ------- 1 0.0 3.0 42 42
r 0.712 0 2 cbr 500 ------- 1 0.0 3.0 40 40
+ 0.712 2 3 cbr 500 ------- 1 0.0 3.0 40 40
- 0.712 2 3 cbr 500 ------- 1 0.0 3.0 40 40
r 0.714 2 3 cbr 500 ------- 1 0.0 3.0 38 38
+ 0.715 0 2 cbr 500 ------- 1 0.0 3.0 43 43
- 0.715 0 2 cbr 500 ------- 1 0.0 3.0 43 43
r 0.717 0 2 cbr 500 ------- 1 0.0 3.0 41 41
+ 0.717 2 3 cbr 500 ------- 1 0.0 3.0 41 41
- 0.717 2 3 cbr 500 ------- 1 0.0 3.0 41 41
r 0.719 2 3 cbr 500 ------- 1 0.0 3.0 39 39
+ 0.72 0 2 cbr 500 ------- 1 0.0 3.0 44 44
- 0.72 0 2 cbr 500 ------- 1 0.0 3.0 44 44
r 0.722 0 2 cbr 500 ------- 1 0.0 3.0 42 42
+ 0.722 2 3 cbr 500 ------- 1 0.0 3.0 42 42
- 0.722 2 3 cbr 500 ------- 1 0.0 3.0 42 42
r 0.724 2 3 cbr 500 ------- 1 0.0 3.0 40 40
+ 0.725 0 2 cbr 500 ------- 1 0.0 3.0 45 45
- 0.725 0 2 cbr 500 ------- 1 0.0 3.0 45 45
r 0.727 0 2 cbr 500 ------- 1 0.0 3.0 43 43
+ 0.727 2 3 cbr 500 ------- 1 0.0 3.0 43 43
- 0.727 2 3 cbr 500 ------- 1 0.0 3.0 43 43
r 0.729 2 3 cbr 500 ------- 1 0.0 3.0 41 41
+ 0.73 0 2 cbr 500 ------- 1 0.0 3.0 46 46
- 0.73 0 2 cbr 500 ------- 1 0.0 3.0 46 46
r 0.732 0 2 cbr 500 ------- 1 0.0 3.0 44 44
+ 0.732 2 3 cbr 500 ------- 1 0.0 3.0 44 44
- 0.732 2 3 cbr 500 ------- 1 0.0 3.0 44 44
r 0.734 2 3 cbr 500 ------- 1 0.0 3.0 42 42
+ 0.735 0 2 cbr 500 ------- 1 0.0 3.0 47 47
- 0.735 0 2 cbr 500 ------- 1 0.0 3.0 47 47
r 0.737 0 2 cbr 500 ------- 1 0.0 3.0 45 45
+ 0.737 2 3 cbr 500 ------- 1 0.0 3.0 45 45
- 0.737 2 3 cbr 500 ------- 1 0.0 3.0 45 45
r 0.739 2 3 cbr 500 ------- 1 0.0 3.0 43 43
+ 0.74 0 2 cbr 500 ------- 1 0.0 3.0 48 48
- 0.74 0 2 cbr 500 ------- 1 0.0 3.0 48 48
r 0.742 0 2 cbr 500 ------- 1 0.0 3.0 46 46
+ 0.742 2 3 cbr 500 ------- 1 0.0 3.0 46 46
- 0.742 2 3 cbr 500 ------- 1 0.0 3.0 46 46
r 0.744 2 3 cbr 500 ------- 1 0.0 3.0 44 44
+ 0.745 0 2 cbr 500 ------- 1 0.0 3.0 49 49
- 0.745 0 2 cbr 500 ------- 1 0.0 3.0 49 49
r 0.747 0 2 cbr 500 ------- 1 0.0 3.0 47 47
+ 0.747 2 3 cbr 500 ------- 1 0.0 3.0 47 47
- 0.747 2 3 cbr 500 ------- 1 0.0 3.0 47 47
r 0.749 2 3 cbr 500 ------- 1 0.0 3.0 45 45
+ 0.75 0 2 cbr 500 ------- 1 0.0 3.0 50 50
- 0.75 0 2 cbr 500 ------- 1 0.0 3.0 50 50
r 0.752 0 2 cbr 500 ------- 1 0.0 3.0 48 48
+ 0.752 2 3 cbr 500 ------- 1 0.0 3.0 48 48
- 0.752 2 3 cbr 500 ------- 1 0.0 3.0 48 48
r 0.754 2 3 cbr 500 ------- 1 0.0 3.0 46 46
+ 0.755 0 2 cbr 500 ------- 1 0.0 3.0 51 51
- 0.755 0 2 cbr 500 ------- 1 0.0 3.0 51 51
r 0.757 0 2 cbr 500 ------- 1 0.0 3.0 49 49
+ 0.757 2 3 cbr 500 ------- 1 0.0 3.0 49 49
- 0.757 2 3 cbr 500 ------- 1 0.0 3.0 49 49
r 0.759 2 3 cbr 500 ------- 1 0.0 3.0 47 47
+ 0.76 0 2 cbr 500 ------- 1 0.0 3.0 52 52
- 0.76 0 2 cbr 500 ------- 1 0.0 3.0 52 52
r 0.762 0 2 cbr 500 ------- 1 0.0 3.0 50 50
+ 0.762 2 3 cbr 500 ------- 1 0.0 3.0 50 50
- 0.762 2 3 cbr 500 ------- 1 0.0 3.0 50 50
r 0.764 2 3 cbr 500 ------- 1 0.0 3.0 48 48
+ 0.765 0 2 cbr 500 ------- 1 0.0 3.0 53 53
- 0.765 0 2 cbr 500 ------- 1 0.0 3.0 53 53
r 0.767 0 2 cbr 500 ------- 1 0.0 3.0 51 51
+ 0.767 2 3 cbr 500 ------- 1 0.0 3.0 51 51
- 0.767 2 3 cbr 500 ------- 1 0.0 3.0 51 51
r 0.769 2 3 cbr 500 ------- 1 0.0 3.0 49 49
+ 0.77 0 2 cbr 500 ------- 1 0.0 3.0 54 54
- 0.77 0 2 cbr 500 ------- 1 0.0 3.0 54 54
r 0.772 0 2 cbr 500 ------- 1 0.0 3.0 52 52
+ 0.772 2 3 cbr 500 ------- 1 0.0 3.0 52 52
- 0.772 2 3 cbr 500 ------- 1 0.0 3.0 52 52
r 0.774 2 3 cbr 500 ------- 1 0.0 3.0 50 50
+ 0.775 0 2 cbr 500 ------- 1 0.0 3.0 55 55
- 0.775 0 2 cbr 500 ------- 1 0.0 3.0 55 55
r 0.777 0 2 cbr 500 ------- 1 0.0 3.0 53 53
+ 0.777 2 3 cbr 500 ------- 1 0.0 3.0 53 53
- 0.777 2 3 cbr 500 ------- 1 0.0 3.0 53 53
r 0.779 2 3 cbr 500 ------- 1 0.0 3.0 51 51
+ 0.78 0 2 cbr 500 ------- 1 0.0 3.0 56 56
- 0.78 0 2 cbr 500 ------- 1 0.0 3.0 56 56
r 0.782 0 2 cbr 500 ------- 1 0.0 3.0 54 54
+ 0.782 2 3 cbr 500 ------- 1 0.0 3.0 54 54
- 0.782 2 3 cbr 500 ------- 1 0.0 3.0 54 54
r 0.784 2 3 cbr 500 ------- 1 0.0 3.0 52 52
+ 0.785 0 2 cbr 500 ------- 1 0.0 3.0 57 57
- 0.785 0 2 cbr 500 ------- 1 0.0 3.0 57 57
r 0.787 0 2 cbr 500 ------- 1 0.0 3.0 55 55
+ 0.787 2 3 cbr 500 ------- 1 0.0 3.0 55 55
- 0.787 2 3 cbr 500 ------- 1 0.0 3.0 55 55
r 0.789 2 3 cbr 500 ------- 1 0.0 3.0 53 53
+ 0.79 0 2 cbr 500 ------- 1 0.0 3.0 58 58
- 0.79 0 2 cbr 500 ------- 1 0.0 3.0 58 58
r 0.792 0 2 cbr 500 ------- 1 0.0 3.0 56 56
+ 0.792 2 3 cbr 500 ------- 1 0.0 3.0 56 56
- 0.792 2 3 cbr 500 ------- 1 0.0 3.0 56 56
r 0.794 2 3 cbr 500 ------- 1 0.0 3.0 54 54
+ 0.795 0 2 cbr 500 ------- 1 0.0 3.0 59 59
- 0.795 0 2 cbr 500 ------- 1 0.0 3.0 59 59
r 0.797 0 2 cbr 500 ------- 1 0.0 3.0 57 57
+ 0.797 2 3 cbr 500 ------- 1 0.0 3.0 57 57
- 0.797 2 3 cbr 500 ------- 1 0.0 3.0 57 57
r 0.799 2 3 cbr 500 ------- 1 0.0 3.0 55 55
+ 0.8 0 2 cbr 500 ------- 1 0.0 3.0 60 60
- 0.8 0 2 cbr 500 ------- 1 0.0 3.0 60 60
r 0.802 0 2 cbr 500 ------- 1 0.0 3.0 58 58
+ 0.802 2 3 cbr 500 ------- 1 0.0 3.0 58 58
- 0.802 2 3 cbr 500 ------- 1 0.0 3.0 58 58
r 0.804 2 3 cbr 500 ------- 1 0.0 3.0 56 56
+ 0.805 0 2 cbr 500 ------- 1 0.0 3.0 61 61
- 0.805 0 2 cbr 500 ------- 1 0.0 3.0 61 61
r 0.807 0 2 cbr 500 ------- 1 0.0 3.0 59 59
+ 0.807 2 3 cbr 500 ------- 1 0.0 3.0 59 59
- 0.807 2 3 cbr 500 ------- 1 0.0 3.0 59 59
r 0.809 2 3 cbr 500 ------- 1 0.0 3.0 57 57
+ 0.81 0 2 cbr 500 ------- 1 0.0 3.0 62 62
- 0.81 0 2 cbr 500 ------- 1 0.0 3.0 62 62
r 0.812 0 2 cbr 500 ------- 1 0.0 3.0 60 60
+ 0.812 2 3 cbr 500 ------- 1 0.0 3.0 60 60
- 0.812 2 3 cbr 500 ------- 1 0.0 3.0 60 60
r 0.814 2 3 cbr 500 ------- 1 0.0 3.0 58 58
+ 0.815 0 2 cbr 500 ------- 1 0.0 3.0 63 63
- 0.815 0 2 cbr 500 ------- 1 0.0 3.0 63 63
r 0.817 0 2 cbr 500 ------- 1 0.0 3.0 61 61
+ 0.817 2 3 cbr 500 ------- 1 0.0 3.0 61 61
- 0.817 2 3 cbr 500 ------- 1 0.0 3.0 61 61
r 0.819 2 3 cbr 500 ------- 1 0.0 3.0 59 59
+ 0.82 0 2 cbr 500 ------- 1 0.0 3.0 64 64
- 0.82 0 2 cbr 500 ------- 1 0.0 3.0 64 64
r 0.822 0 2 cbr 500 ------- 1 0.0 3.0 62 62
+ 0.822 2 3 cbr 500 ------- 1 0.0 3.0 62 62
- 0.822 2 3 cbr 500 ------- 1 0.0 3.0 62 62
r 0.824 2 3 cbr 500 ------- 1 0.0 3.0 60 60
+ 0.825 0 2 cbr 500 ------- 1 0.0 3.0 65 65
- 0.825 0 2 cbr 500 ------- 1 0.0 3.0 65 65
r 0.827 0 2 cbr 500 ------- 1 0.0 3.0 63 63
+ 0.827 2 3 cbr 500 ------- 1 0.0 3.0 63 63
- 0.827 2 3 cbr 500 ------- 1 0.0 3.0 63 63
r 0.829 2 3 cbr 500 ------- 1 0.0 3.0 61 61
+ 0.83 0 2 cbr 500 ------- 1 0.0 3.0 66 66
- 0.83 0 2 cbr 500 ------- 1 0.0 3.0 66 66
r 0.832 0 2 cbr 500 ------- 1 0.0 3.0 64 64
+ 0.832 2 3 cbr 500 ------- 1 0.0 3.0 64 64
- 0.832 2 3 cbr 500 ------- 1 0.0 3.0 64 64
r 0.834 2 3 cbr 500 ------- 1 0.0 3.0 62 62
+ 0.835 0 2 cbr 500 ------- 1 0.0 3.0 67 67
- 0.835 0 2 cbr 500 ------- 1 0.0 3.0 67 67
r 0.837 0 2 cbr 500 ------- 1 0.0 3.0 65 65
+ 0.837 2 3 cbr 500 ------- 1 0.0 3.0 65 65
- 0.837 2 3 cbr 500 ------- 1 0.0 3.0 65 65
r 0.839 2 3 cbr 500 ------- 1 0.0 3.0 63 63
+ 0.84 0 2 cbr 500 ------- 1 0.0 3.0 68 68
- 0.84 0 2 cbr 500 ------- 1 0.0 3.0 68 68
r 0.842 0 2 cbr 500 ------- 1 0.0 3.0 66 66
+ 0.842 2 3 cbr 500 ------- 1 0.0 3.0 66 66
- 0.842 2 3 cbr 500 ------- 1 0.0 3.0 66 66
r 0.844 2 3 cbr 500 ------- 1 0.0 3.0 64 64
+ 0.845 0 2 cbr 500 ------- 1 0.0 3.0 69 69
- 0.845 0 2 cbr 500 ------- 1 0.0 3.0 69 69
r 0.847 0 2 cbr 500 ------- 1 0.0 3.0 67 67
+ 0.847 2 3 cbr 500 ------- 1 0.0 3.0 67 67
- 0.847 2 3 cbr 500 ------- 1 0.0 3.0 67 67
r 0.849 2 3 cbr 500 ------- 1 0.0 3.0 65 65
+ 0.85 0 2 cbr 500 ------- 1 0.0 3.0 70 70
- 0.85 0 2 cbr 500 ------- 1 0.0 3.0 70 70
r 0.852 0 2 cbr 500 ------- 1 0.0 3.0 68 68
+ 0.852 2 3 cbr 500 ------- 1 0.0 3.0 68 68
- 0.852 2 3 cbr 500 ------- 1 0.0 3.0 68 68
r 0.854 2 3 cbr 500 ------- 1 0.0 3.0 66 66
+ 0.855 0 2 cbr 500 ------- 1 0.0 3.0 71 71
- 0.855 0 2 cbr 500 ------- 1 0.0 3.0 71 71
r 0.857 0 2 cbr 500 ------- 1 0.0 3.0 69 69
+ 0.857 2 3 cbr 500 ------- 1 0.0 3.0 69 69
- 0.857 2 3 cbr 500 ------- 1 0.0 3.0 69 69
r 0.859 2 3 cbr 500 ------- 1 0.0 3.0 67 67
+ 0.86 0 2 cbr 500 ------- 1 0.0 3.0 72 72
- 0.86 0 2 cbr 500 ------- 1 0.0 3.0 72 72
r 0.862 0 2 cbr 500 ------- 1 0.0 3.0 70 70
+ 0.862 2 3 cbr 500 ------- 1 0.0 3.0 70 70
- 0.862 2 3 cbr 500 ------- 1 0.0 3.0 70 70
r 0.864 2 3 cbr 500 ------- 1 0.0 3.0 68 68
+ 0.865 0 2 cbr 500 ------- 1 0.0 3.0 73 73
- 0.865 0 2 cbr 500 ------- 1 0.0 3.0 73 73
r 0.867 0 2 cbr 500 ------- 1 0.0 3.0 71 71
+ 0.867 2 3 cbr 500 ------- 1 0.0 3.0 71 71
- 0.867 2 3 cbr 500 ------- 1 0.0 3.0 71 71
r 0.869 2 3 cbr 500 ------- 1 0.0 3.0 69 69
+ 0.87 0 2 cbr 500 ------- 1 0.0 3.0 74 74
- 0.87 0 2 cbr 500 ------- 1 0.0 3.0 74 74
r 0.872 0 2 cbr 500 ------- 1 0.0 3.0 72 72
+ 0.872 2 3 cbr 500 ------- 1 0.0 3.0 72 72
- 0.872 2 3 cbr 500 ------- 1 0.0 3.0 72 72
r 0.874 2 3 cbr 500 ------- 1 0.0 3.0 70 70
+ 0.875 0 2 cbr 500 ------- 1 0.0 3.0 75 75
- 0.875 0 2 cbr 500 ------- 1 0.0 3.0 75 75
r 0.877 0 2 cbr 500 ------- 1 0.0 3.0 73 73
+ 0.877 2 3 cbr 500 ------- 1 0.0 3.0 73 73
- 0.877 2 3 cbr 500 ------- 1 0.0 3.0 73 73
r 0.879 2 3 cbr 500 ------- 1 0.0 3.0 71 71
+ 0.88 0 2 cbr 500 ------- 1 0.0 3.0 76 76
- 0.88 0 2 cbr 500 ------- 1 0.0 3.0 76 76
r 0.882 0 2 cbr 500 ------- 1 0.0 3.0 74 74
+ 0.882 2 3 cbr 500 ------- 1 0.0 3.0 74 74
- 0.882 2 3 cbr 500 ------- 1 0.0 3.0 74 74
r 0.884 2 3 cbr 500 ------- 1 0.0 3.0 72 72
+ 0.885 0 2 cbr 500 ------- 1 0.0 3.0 77 77
- 0.885 0 2 cbr 500 ------- 1 0.0 3.0 77 77
r 0.887 0 2 cbr 500 ------- 1 0.0 3.0 75 75
+ 0.887 2 3 cbr 500 ------- 1 0.0 3.0 75 75
- 0.887 2 3 cbr 500 ------- 1 0.0 3.0 75 75
r 0.889 2 3 cbr 500 ------- 1 0.0 3.0 73 73
+ 0.89 0 2 cbr 500 ------- 1 0.0 3.0 78 78
- 0.89 0 2 cbr 500 ------- 1 0.0 3.0 78 78
r 0.892 0 2 cbr 500 ------- 1 0.0 3.0 76 76
+ 0.892 2 3 cbr 500 ------- 1 0.0 3.0 76 76
- 0.892 2 3 cbr 500 ------- 1 0.0 3.0 76 76
r 0.894 2 3 cbr 500 ------- 1 0.0 3.0 74 74
+ 0.895 0 2 cbr 500 ------- 1 0.0 3.0 79 79
- 0.895 0 2 cbr 500 ------- 1 0.0 3.0 79 79
r 0.897 0 2 cbr 500 ------- 1 0.0 3.0 77 77
+ 0.897 2 3 cbr 500 ------- 1 0.0 3.0 77 77
- 0.897 2 3 cbr 500 ------- 1 0.0 3.0 77 77
r 0.899 2 3 cbr 500 ------- 1 0.0 3.0 75 75
+ 0.9 0 2 cbr 500 ------- 1 0.0 3.0 80 80
- 0.9 0 2 cbr 500 ------- 1 0.0 3.0 80 80
r 0.902 0 2 cbr 500 ------- 1 0.0 3.0 78 78
+ 0.902 2 3 cbr 500 ------- 1 0.0 3.0 78 78
- 0.902 2 3 cbr 500 ------- 1 0.0 3.0 78 78
r 0.904 2 3 cbr 500 ------- 1 0.0 3.0 76 76
+ 0.905 0 2 cbr 500 ------- 1 0.0 3.0 81 81
- 0.905 0 2 cbr 500 ------- 1 0.0 3.0 81 81
r 0.907 0 2 cbr 500 ------- 1 0.0 3.0 79 79
+ 0.907 2 3 cbr 500 ------- 1 0.0 3.0 79 79
- 0.907 2 3 cbr 500 ------- 1 0.0 3.0 79 79
r 0.909 2 3 cbr 500 ------- 1 0.0 3.0 77 77
+ 0.91 0 2 cbr 500 ------- 1 0.0 3.0 82 82
- 0.91 0 2 cbr 500 ------- 1 0.0 3.0 82 82
r 0.912 0 2 cbr 500 ------- 1 0.0 3.0 80 80
+ 0.912 2 3 cbr 500 ------- 1 0.0 3.0 80 80
- 0.912 2 3 cbr 500 ------- 1 0.0 3.0 80 80
r 0.914 2 3 cbr 500 ------- 1 0.0 3.0 78 78
+ 0.915 0 2 cbr 500 ------- 1 0.0 3.0 83 83
- 0.915 0 2 cbr 500 ------- 1 0.0 3.0 83 83
r 0.917 0 2 cbr 500 ------- 1 0.0 3.0 81 81
+ 0.917 2 3 cbr 500 ------- 1 0.0 3.0 81 81
- 0.917 2 3 cbr 500 ------- 1 0.0 3.0 81 81
r 0.919 2 3 cbr 500 ------- 1 0.0 3.0 79 79
+ 0.92 0 2 cbr 500 ------- 1 0.0 3.0 84 84
- 0.92 0 2 cbr 500 ------- 1 0.0 3.0 84 84
r 0.922 0 2 cbr 500 ------- 1 0.0 3.0 82 82
+ 0.922 2 3 cbr 500 ------- 1 0.0 3.0 82 82
- 0.922 2 3 cbr 500 ------- 1 0.0 3.0 82 82
r 0.924 2 3 cbr 500 ------- 1 0.0 3.0 80 80
+ 0.925 0 2 cbr 500 ------- 1 0.0 3.0 85 85
- 0.925 0 2 cbr 500 ------- 1 0.0 3.0 85 85
r 0.927 0 2 cbr 500 ------- 1 0.0 3.0 83 83
+ 0.927 2 3 cbr 500 ------- 1 0.0 3.0 83 83
- 0.927 2 3 cbr 500 ------- 1 0.0 3.0 83 83
r 0.929 2 3 cbr 500 ------- 1 0.0 3.0 81 81
+ 0.93 0 2 cbr 500 ------- 1 0.0 3.0 86 86
- 0.93 0 2 cbr 500 ------- 1 0.0 3.0 86 86
r 0.932 0 2 cbr 500 ------- 1 0.0 3.0 84 84
+ 0.932 2 3 cbr 500 ------- 1 0.0 3.0 84 84
- 0.932 2 3 cbr 500 ------- 1 0.0 3.0 84 84
r 0.934 2 3 cbr 500 ------- 1 0.0 3.0 82 82
+ 0.935 0 2 cbr 500 ------- 1 0.0 3.0 87 87
- 0.935 0 2 cbr 500 ------- 1 0.0 3.0 87 87
r 0.937 0 2 cbr 500 ------- 1 0.0 3.0 85 85
+ 0.937 2 3 cbr 500 ------- 1 0.0 3.0 85 85
- 0.937 2 3 cbr 500 ------- 1 0.0 3.0 85 85
r 0.939 2 3 cbr 500 ------- 1 0.0 3.0 83 83
+ 0.94 0 2 cbr 500 ------- 1 0.0 3.0 88 88
- 0.94 0 2 cbr 500 ------- 1 0.0 3.0 88 88
r 0.942 0 2 cbr 500 ------- 1 0.0 3.0 86 86
+ 0.942 2 3 cbr 500 ------- 1 0.0 3.0 86 86
- 0.942 2 3 cbr 500 ------- 1 0.0 3.0 86 86
r 0.944 2 3 cbr 500 ------- 1 0.0 3.0 84 84
+ 0.945 0 2 cbr 500 ------- 1 0.0 3.0 89 89
- 0.945 0 2 cbr 500 ------- 1 0.0 3.0 89 89
r 0.947 0 2 cbr 500 ------- 1 0.0 3.0 87 87
+ 0.947 2 3 cbr 500 ------- 1 0.0 3.0 87 87
- 0.947 2 3 cbr 500 ------- 1 0.0 3.0 87 87
r 0.949 2 3 cbr 500 ------- 1 0.0 3.0 85 85
+ 0.95 0 2 cbr 500 ------- 1 0.0 3.0 90 90
- 0.95 0 2 cbr 500 ------- 1 0.0 3.0 90 90
r 0.952 0 2 cbr 500 ------- 1 0.0 3.0 88 88
+ 0.952 2 3 cbr 500 ------- 1 0.0 3.0 88 88
- 0.952 2 3 cbr 500 ------- 1 0.0 3.0 88 88
r 0.954 2 3 cbr 500 ------- 1 0.0 3.0 86 86
+ 0.955 0 2 cbr 500 ------- 1 0.0 3.0 91 91
- 0.955 0 2 cbr 500 ------- 1 0.0 3.0 91 91
r 0.957 0 2 cbr 500 ------- 1 0.0 3.0 89 89
+ 0.957 2 3 cbr 500 ------- 1 0.0 3.0 89 89
- 0.957 2 3 cbr 500 ------- 1 0.0 3.0 89 89
r 0.959 2 3 cbr 500 ------- 1 0.0 3.0 87 87
+ 0.96 0 2 cbr 500 ------- 1 0.0 3.0 92 92
- 0.96 0 2 cbr 500 ------- 1 0.0 3.0 92 92
r 0.962 0 2 cbr 500 ------- 1 0.0 3.0 90 90
+ 0.962 2 3 cbr 500 ------- 1 0.0 3.0 90 90
- 0.962 2 3 cbr 500 ------- 1 0.0 3.0 90 90
r 0.964 2 3 cbr 500 ------- 1 0.0 3.0 88 88
+ 0.965 0 2 cbr 500 ------- 1 0.0 3.0 93 93
- 0.965 0 2 cbr 500 ------- 1 0.0 3.0 93 93
r 0.967 0 2 cbr 500 ------- 1 0.0 3.0 91 91
+ 0.967 2 3 cbr 500 ------- 1 0.0 3.0 91 91
- 0.967 2 3 cbr 500 ------- 1 0.0 3.0 91 91
r 0.969 2 3 cbr 500 ------- 1 0.0 3.0 89 89
+ 0.97 0 2 cbr 500 ------- 1 0.0 3.0 94 94
- 0.97 0 2 cbr 500 ------- 1 0.0 3.0 94 94
r 0.972 0 2 cbr 500 ------- 1 0.0 3.0 92 92
+ 0.972 2 3 cbr 500 ------- 1 0.0 3.0 92 92
- 0.972 2 3 cbr 500 ------- 1 0.0 3.0 92 92
r 0.974 2 3 cbr 500 ------- 1 0.0 3.0 90 90
+ 0.975 0 2 cbr 500 ------- 1 0.0 3.0 95 95
- 0.975 0 2 cbr 500 ------- 1 0.0 3.0 95 95
r 0.977 0 2 cbr 500 ------- 1 0.0 3.0 93 93
+ 0.977 2 3 cbr 500 ------- 1 0.0 3.0 93 93
- 0.977 2 3 cbr 500 ------- 1 0.0 3.0 93 93
r 0.979 2 3 cbr 500 ------- 1 0.0 3.0 91 91
+ 0.98 0 2 cbr 500 ------- 1 0.0 3.0 96 96
- 0.98 0 2 cbr 500 ------- 1 0.0 3.0 96 96
r 0.982 0 2 cbr 500 ------- 1 0.0 3.0 94 94
+ 0.982 2 3 cbr 500 ------- 1 0.0 3.0 94 94
- 0.982 2 3 cbr 500 ------- 1 0.0 3.0 94 94
r 0.984 2 3 cbr 500 ------- 1 0.0 3.0 92 92
+ 0.985 0 2 cbr 500 ------- 1 0.0 3.0 97 97
- 0.985 0 2 cbr 500 ------- 1 0.0 3.0 97 97
r 0.987 0 2 cbr 500 ------- 1 0.0 3.0 95 95
+ 0.987 2 3 cbr 500 ------- 1 0.0 3.0 95 95
- 0.987 2 3 cbr 500 ------- 1 0.0 3.0 95 95
r 0.989 2 3 cbr 500 ------- 1 0.0 3.0 93 93
+ 0.99 0 2 cbr 500 ------- 1 0.0 3.0 98 98
- 0.99 0 2 cbr 500 ------- 1 0.0 3.0 98 98
r 0.992 0 2 cbr 500 ------- 1 0.0 3.0 96 96
+ 0.992 2 3 cbr 500 ------- 1 0.0 3.0 96 96
- 0.992 2 3 cbr 500 ------- 1 0.0 3.0 96 96
r 0.994 2 3 cbr 500 ------- 1 0.0 3.0 94 94
+ 0.995 0 2 cbr 500 ------- 1 0.0 3.0 99 99
- 0.995 0 2 cbr 500 ------- 1 0.0 3.0 99 99
r 0.997 0 2 cbr 500 ------- 1 0.0 3.0 97 97
+ 0.997 2 3 cbr 500 ------- 1 0.0 3.0 97 97
- 0.997 2 3 cbr 500 ------- 1 0.0 3.0 97 97
r 0.999 2 3 cbr 500 ------- 1 0.0 3.0 95 95
+ 1 1 2 tcp 40 ------- 2 1.0 3.1 0 100
- 1 1 2 tcp 40 ------- 2 1.0 3.1 0 100
+ 1 0 2 cbr 500 ------- 1 0.0 3.0 100 101
- 1 0 2 cbr 500 ------- 1 0.0 3.0 100 101
r 1.002 0 2 cbr 500 ------- 1 0.0 3.0 98 98
+ 1.002 2 3 cbr 500 ------- 1 0.0 3.0 98 98
- 1.002 2 3 cbr 500 ------- 1 0.0 3.0 98 98
r 1.004 2 3 cbr 500 ------- 1 0.0 3.0 96 96
+ 1.005 0 2 cbr 500 ------- 1 0.0 3.0 101 102
- 1.005 0 2 cbr 500 ------- 1 0.0 3.0 101 102
r 1.007 0 2 cbr 500 ------- 1 0.0 3.0 99 99
+ 1.007 2 3 cbr 500 ------- 1 0.0 3.0 99 99
- 1.007 2 3 cbr 500 ------- 1 0.0 3.0 99 99
r 1.009 2 3 cbr 500 ------- 1 0.0 3.0 97 97
+ 1.01 0 2 cbr 500 ------- 1 0.0 3.0 102 103
- 1.01 0 2 cbr 500 ------- 1 0.0 3.0 102 103
r 1.01016 1 2 tcp 40 ------- 2 1.0 3.1 0 100
+ 1.01016 2 3 tcp 40 ------- 2 1.0 3.1 0 100
- 1.01016 2 3 tcp 40 ------- 2 1.0 3.1 0 100
r 1.012 0 2 cbr 500 ------- 1 0.0 3.0 100 101
+ 1.012 2 3 cbr 500 ------- 1 0.0 3.0 100 101
- 1.012 2 3 cbr 500 ------- 1 0.0 3.0 100 101
r 1.014 2 3 cbr 500 ------- 1 0.0 3.0 98 98
+ 1.015 0 2 cbr 500 ------- 1 0.0 3.0 103 104
- 1.015 0 2 cbr 500 ------- 1 0.0 3.0 103 104
r 1.017 0 2 cbr 500 ------- 1 0.0 3.0 101 102
+ 1.017 2 3 cbr 500 ------- 1 0.0 3.0 101 102
- 1.017 2 3 cbr 500 ------- 1 0.0 3.0 101 102
r 1.019 2 3 cbr 500 ------- 1 0.0 3.0 99 99
+ 1.02 0 2 cbr 500 ------- 1 0.0 3.0 104 105
- 1.02 0 2 cbr 500 ------- 1 0.0 3.0 104 105
r 1.02032 2 3 tcp 40 ------- 2 1.0 3.1 0 100
+ 1.02032 3 2 ack 40 ------- 2 3.1 1.0 0 106
- 1.02032 3 2 ack 40 ------- 2 3.1 1.0 0 106
r 1.022 0 2 cbr 500 ------- 1 0.0 3.0 102 103
+ 1.022 2 3 cbr 500 ------- 1 0.0 3.0 102 103
- 1.022 2 3 cbr 500 ------- 1 0.0 3.0 102 103
r 1.024 2 3 cbr 500 ------- 1 0.0 3.0 100 101
+ 1.025 0 2 cbr 500 ------- 1 0.0 3.0 105 107
- 1.025 0 2 cbr 500 ------- 1 0.0 3.0 105 107
r 1.027 0 2 cbr 500 ------- 1 0.0 3.0 103 104
+ 1.027 2 3 cbr 500 ------- 1 0.0 3.0 103 104
- 1.027 2 3 cbr 500 ------- 1 0.0 3.0 103 104
r 1.029 2 3 cbr 500 ------- 1 0.0 3.0 101 102
+ 1.03 0 2 cbr 500 ------- 1 0.0 3.0 106 108
- 1.03 0 2 cbr 500 ------- 1 0.0 3.0 106 108
r 1.03048 3 2 ack 40 ------- 2 3.1 1.0 0 106
+ 1.03048 2 1 ack 40 ------- 2 3.1 1.0 0 106
- 1.03048 2 1 ack 40 ------- 2 3.1 1.0 0 106
r 1.032 0 2 cbr 500 ------- 1 0.0 3.0 104 105
+ 1.032 2 3 cbr 500 ------- 1 0.0 3.0 104 105
- 1.032 2 3 cbr 500 ------- 1 0.0 3.0 104 105
r 1.034 2 3 cbr 500 ------- 1 0.0 3.0 102 103
+ 1.035 0 2 cbr 500 ------- 1 0.0 3.0 107 109
- 1.035 0 2 cbr 500 ------- 1 0.0 3.0 107 109
r 1.037 0 2 cbr 500 ------- 1 0.0 3.0 105 107
+ 1.037 2 3 cbr 500 ------- 1 0.0 3.0 105 107
- 1.037 2 3 cbr 500 ------- 1 0.0 3.0 105 107
r 1.039 2 3 cbr 500 ------- 1 0.0 3.0 103 104
+ 1.04 0 2 cbr 500 ------- 1 0.0 3.0 108 110
- 1.04 0 2 cbr 500 ------- 1 0.0 3.0 108 110
r 1.04064 2 1 ack 40 ------- 2 3.1 1.0 0 106
+ 1.04064 1 2 tcp 1040 ------- 2 1.0 3.1 1 111
- 1.04064 1 2 tcp 1040 ------- 2 1.0 3.1 1 111
+ 1.04064 1 2 tcp 1040 ------- 2 1.0 3.1 2 112
r 1.042 0 2 cbr 500 ------- 1 0.0 3.0 106 108
+ 1.042 2 3 cbr 500 ------- 1 0.0 3.0 106 108
- 1.042 2 3 cbr 500 ------- 1 0.0 3.0 106 108
r 1.044 2 3 cbr 500 ------- 1 0.0 3.0 104 105
- 1.0448 1 2 tcp 1040 ------- 2 1.0 3.1 2 112
+ 1.045 0 2 cbr 500 ------- 1 0.0 3.0 109 113
- 1.045 0 2 cbr 500 ------- 1 0.0 3.0 109 113
r 1.047 0 2 cbr 500 ------- 1 0.0 3.0 107 109
+ 1.047 2 3 cbr 500 ------- 1 0.0 3.0 107 109
- 1.047 2 3 cbr 500 ------- 1 0.0 3.0 107 109
r 1.049 2 3 cbr 500 ------- 1 0.0 3.0 105 107
+ 1.05 0 2 cbr 500 ------- 1 0.0 3.0 110 114
- 1.05 0 2 cbr 500 ------- 1 0.0 3.0 110 114
r 1.052 0 2 cbr 500 ------- 1 0.0 3.0 108 110
+ 1.052 2 3 cbr 500 ------- 1 0.0 3.0 108 110
- 1.052 2 3 cbr 500 ------- 1 0.0 3.0 108 110
r 1.054 2 3 cbr 500 ------- 1 0.0 3.0 106 108
r 1.0548 1 2 tcp 1040 ------- 2 1.0 3.1 1 111
+ 1.0548 2 3 tcp 1040 ------- 2 1.0 3.1 1 111
- 1.0548 2 3 tcp 1040 ------- 2 1.0 3.1 1 111
+ 1.055 0 2 cbr 500 ------- 1 0.0 3.0 111 115
- 1.055 0 2 cbr 500 ------- 1 0.0 3.0 111 115
r 1.057 0 2 cbr 500 ------- 1 0.0 3.0 109 113
+ 1.057 2 3 cbr 500 ------- 1 0.0 3.0 109 113
r 1.05896 1 2 tcp 1040 ------- 2 1.0 3.1 2 112
+ 1.05896 2 3 tcp 1040 ------- 2 1.0 3.1 2 112
- 1.05896 2 3 cbr 500 ------- 1 0.0 3.0 109 113
r 1.059 2 3 cbr 500 ------- 1 0.0 3.0 107 109
+ 1.06 0 2 cbr 500 ------- 1 0.0 3.0 112 116